\begin{thebibliography}{10}

\bibitem{Trumpler1930}
R.~J. Trumpler, ``{ABSORPTION OF LIGHT IN THE GALACTIC SYSTEM},'' {\em
  Publications of the Astronomical Society of the Pacific}, vol.~42, no.~248,
  pp.~214--227, 1930.

\bibitem{Draine2003}
B.~Draine, ``{Interstellar Dust Grains},'' {\em Annual Review of Astronomy and
  Astrophysics}, vol.~41, pp.~241--289, sep 2003.

\bibitem{Merrill1976}
K.~Merrill, R.~Russell, and B.~Soifer, ``Infrared observations of ices and
  silicates in molecular clouds,'' {\em The Astrophysical Journal}, vol.~207,
  pp.~763--769, 1976.

\bibitem{Gibb2004}
E.~L. Gibb, D.~C.~B. Whittet, A.~C.~A. Boogert, and A.~G. G.~M. Tielens,
  ``{Interstellar Ice: The Infrared Space Observatory Legacy},'' {\em The
  Astrophysical Journal Supplement Series}, vol.~151, pp.~35--73, mar 2004.

\bibitem{Ferriere2001}
K.~M. Ferri{\`{e}}re, ``The interstellar environment of our galaxy,'' {\em
  Reviews of Modern Physics}, vol.~73, pp.~1031--1066, dec 2001.

\bibitem{TielensHagen1982}
A.~G. G.~M. Tielens and W.~Hagen, ``{Model Calculations of the Molecular
  Composition of Interstellar Grain Mantles},'' {\em Astronomy and
  Astrophysics}, vol.~114, pp.~245--260, 1982.

\bibitem{RomanzinIoppoloCuppenEtAl2011}
C.~Romanzin, S.~Ioppolo, H.~M. Cuppen, E.~F. van Dishoeck, and H.~Linnartz,
  ``{Water formation by surface O3 hydrogenation},'' {\em The Journal of
  Chemical Physics}, vol.~134, no.~8, p.~084504, 2011.

\bibitem{CabreraSanfelix2003}
P.~Cabrera~Sanfelix, S.~Holloway, K.~Kolasinski, and G.~Darling, ``The
  structure of water on the (0001) surface of graphite,'' {\em Surface
  Science}, vol.~532-535, pp.~166--172, Jun 2003.

\bibitem{GrimmeB97-D2006}
S.~Grimme, ``{Semiempirical GGA-Type Density Functional Constructed with a
  Long-Range Dispersion Correction},'' {\em Journal of Computational
  Chemistry}, vol.~27, no.~15, pp.~1787--1799, 2006.

\bibitem{TURBOMOLE}
``{TURBOMOLE V6.6 2014}, a development of {University of Karlsruhe} and
  {Forschungszentrum Karlsruhe GmbH}, 1989-2007, {TURBOMOLE GmbH}, since 2007;
  available from \\ {\tt http://www.turbomole.com}..''

\bibitem{Anacker2014}
T.~Anacker and J.~Friedrich, ``{New Accurate Benchmark Energies for Large Water
  Clusters: {DFT} Is Better Than Expected},'' {\em Journal of Computational
  Chemistry}, vol.~35, pp.~634--643, Jan 2014.

\bibitem{BeckeXDM2007}
A.~D. Becke and E.~R. Johnson, ``{Exchange-hole dipole moment and the
  dispersion interaction revisited},'' {\em J. Chem. Phys.}, vol.~127, no.~15,
  p.~154108, 2007.

\bibitem{GrimmeDCorrection2010}
S.~Grimme, J.~Antony, S.~Ehrlich, and H.~Krieg, ``{A consistent and accurate ab
  initio parametrization of density functional dispersion correction ({DFT}-D)
  for the 94 elements H-Pu},'' {\em J. Chem. Phys.}, vol.~132, no.~15,
  p.~154104, 2010.

\bibitem{GrimmeD32011}
S.~Grimme, S.~Ehrlich, and L.~Goerigk, ``{Effect of the damping function in
  dispersion corrected density functional theory},'' {\em Journal of
  Computational Chemistry}, vol.~32, pp.~1456--1465, Mar 2011.

\bibitem{Jorgensen1983TIP3P}
W.~L. Jorgensen, J.~Chandrasekhar, J.~D. Madura, R.~W. Impey, and M.~L. Klein,
  ``{Comparison of simple potential functions for simulating liquid water},''
  {\em J. Chem. Phys.}, vol.~79, no.~2, p.~926, 1983.

\bibitem{MacKerell1998CHARMMTIP3}
A.~D. MacKerell, D.~Bashford, M.~Bellott, R.~L. Dunbrack, J.~D. Evanseck, M.~J.
  Field, S.~Fischer, J.~Gao, H.~Guo, S.~Ha, and et~al., ``{All-Atom Empirical
  Potential for Molecular Modeling and Dynamics Studies of Proteins},'' {\em J.
  Phys. Chem. B}, vol.~102, pp.~3586--3616, Apr 1998.

\bibitem{Warshel1976QMMM}
A.~Warshel and M.~Levitt, ``{Theoretical Studies of Enzymic Reactions:
  Dielectric, Electrostatic and Steric Stabilization of the Carbonium Ion in
  the Reaction of Lysozyme},'' {\em Journal of Molecular Biology}, vol.~103,
  pp.~227--249, May 1976.

\bibitem{Kaestner2009}
J.~Kästner, J.~M. Carr, T.~W. Keal, W.~Thiel, A.~Wander, and P.~Sherwood,
  ``{DL-FIND: An Open-Source Geometry Optimizer for Atomistic Simulations},''
  {\em The Journal of Physical Chemistry A}, vol.~113, pp.~11856--11865, Oct
  2009.

\bibitem{Brorsen2014AnalyticalGradientDFT}
K.~R. Brorsen, F.~Zahariev, H.~Nakata, D.~G. Fedorov, and M.~S. Gordon,
  ``{Analytic Gradient for Density Functional Theory Based on the Fragment
  Molecular Orbital Method},'' {\em Journal of Chemical Theory and
  Computation}, vol.~10, pp.~5297--5307, Dec 2014.

\bibitem{CHARMM2009}
B.~R. Brooks, C.~L. Brooks, A.~D. Mackerell, L.~Nilsson, R.~J. Petrella,
  B.~Roux, Y.~Won, G.~Archontis, C.~Bartels, S.~Boresch, and et~al., ``{CHARMM:
  The Biomolecular Simulation Program},'' {\em Journal of Computational
  Chemistry}, vol.~30, pp.~1545--1614, Jul 2009.

\bibitem{chemshell}
``Chemshell, a computational chemistry shell, see www.chemshell.org.''

\bibitem{MOLPRO_brief}
H.-J. Werner, P.~J. Knowles, G.~Knizia, F.~R. Manby, M.~{Sch\"{u}tz}, {\em
  et~al.}, ``Molpro, version 2012.1, a package of ab initio programs,'' 2012.
\newblock see.

\bibitem{HUMP96}
W.~Humphrey, A.~Dalke, and K.~Schulten, ``{VMD} -- {V}isual {M}olecular
  {D}ynamics,'' {\em Journal of Molecular Graphics}, vol.~14, pp.~33--38, 1996.

\bibitem{KniziaAdlerWerner2009}
G.~Knizia, T.~B. Adler, and H.-J. Werner, ``Simplified {CCSD}(t)-f12~{m}ethods:
  Theory and benchmarks,'' {\em The Journal of Chemical Physics}, vol.~130,
  no.~5, p.~054104, 2009.

\bibitem{YousafPeterson2008}
K.~E. Yousaf and K.~A. Peterson, ``Optimized auxiliary basis sets for
  explicitly correlated methods,'' {\em The Journal of Chemical Physics},
  vol.~129, no.~18, p.~184108, 2008.

\bibitem{ShiozakiKniziaWerner2011}
T.~Shiozaki, G.~Knizia, and H.-J. Werner, ``Explicitly correlated
  multireference configuration interaction: {MRCI}-f12,'' {\em The Journal of
  Chemical Physics}, vol.~134, no.~3, p.~034113, 2011.

\bibitem{LanghoffDavidson1974}
S.~R. Langhoff and E.~R. Davidson, ``Configuration interaction calculations on
  the nitrogen molecule,'' {\em Int. J. Quantum Chem.}, vol.~8, pp.~61--72, jan
  1974.

\bibitem{Barnes1929}
W.~H. Barnes, ``{The Crystal Structure of Ice between 0 degrees C. and - 183
  degrees C},'' {\em Proceedings of the Royal Society of London. Series A,
  Containing Papers of a Mathematical and Physical Character}, vol.~125,
  no.~799, pp.~670--693, 1929.

\bibitem{Fletcher1966}
N.~Fletcher, ``{The freezing of water},'' {\em Science Progress (Oxford)},
  vol.~54, pp.~227--241, 1966.

\bibitem{Fletcher1992}
N.~H. Fletcher, ``{Reconstruction of ice crystal surfaces at low
  temperatures},'' {\em Philosophical Magazine Part B}, vol.~66, pp.~109--115,
  Jul 1992.

\bibitem{Fraser2001}
H.~J. Fraser, M.~P. Collings, M.~R. McCoustra, and D.~A. Williams, ``{Thermal
  desorption of water ice in the interstellar medium},'' {\em Monthly Notices
  of the Royal Astronomical Society}, vol.~327, no.~4, pp.~1165--1172, 2001.

\bibitem{HeVidali2014}
J.~He and G.~Vidali, ``{Experiments of Water Formation on Warm Silicates},''
  {\em The Astrophysical Journal}, vol.~788, p.~50, May 2014.

\bibitem{He2015}
J.~He, J.~Shi, T.~Hopkins, G.~Vidali, and M.~J. Kaufman, ``{A New Determination
  of the Binding Energy of Atomic Oxygen On Dust Grain Surfaces: Experimental
  Results and Simulations},'' {\em The Astrophysical Journal}, vol.~801, no.~2,
  p.~120, 2015.

\bibitem{HeJingVidali2014}
J.~He, D.~Jing, and G.~Vidali, ``{Atomic oxygen diffusion on and desorption
  from amorphous silicate surfaces},'' {\em Physical Chemistry Chemical
  Physics}, vol.~16, no.~8, p.~3493, 2014.

\end{thebibliography}
